50
Lattice = "8.80419365 0.0 0.0 0.0 8.80419365 0.0 0.0 0.0 12.70227822" Properties=species:S:1:pos:R:3:forces:R:3 energy=-210.41040248 stress = "0 0 0 0 0 0 0 0 0"
Li 1.7062098529469247 2.4666555275816124 3.550577263592891 0.48643203 0.0691448 -0.37142375
Li 4.585836120462548 8.696161087482183 9.616809735097926 -0.11297016 -0.09493242 -0.14991882
Li 6.156421420160301 6.999199071503282 2.998906777607369 -0.22566631 -0.04071086 0.04105708
Li 2.4371697547961433 6.652953290278082 0.41064077456954645 -0.08323169 -0.11530344 -0.01149272
Li 7.123884414142328 2.4930302504989177 3.8655994794740907 -0.30183283 0.65806377 -0.26088636
Li 2.013577723684709 1.701161088098332 9.634639160898647 0.20678582 0.06710767 0.11283719
Li 1.926931251878234 6.5911302424677825 6.493797634552127 0.46405574 -0.02000134 0.21209778
Li 8.317792061179782 4.699445875531831 9.731082605534601 -0.14362111 -0.11529395 -0.10954831
Li 2.1872141188919456 3.3151012307545265 0.33266453712373917 -0.28110295 -1.37851787 0.54287514
Li 6.808377594626738 2.162950377486101 7.21833748956266 -0.04124995 0.68414491 0.37864717
Li 6.384061154461781 6.7651108816467325 11.20670397994192 -0.0414626 -0.38075145 -0.17980629
Li 2.289105228087269 6.39366327218228 10.142051861018917 0.25397785 0.47379387 -0.43080916
Li 6.553674209254841 2.45081810383431 0.43197793450072025 -0.05022291 -0.07435921 -0.2430225
Li 2.1502303426263905 2.15066553391851 6.553650642501985 0.29488372 0.1182946 0.181367
Li 2.17259501946193 6.487414904348179 3.5681831292969406 -0.04434056 -0.36027303 -0.11408485
Li 6.0241073317654665 6.557590490674234 6.559850370455602 0.05357795 0.07209029 0.18797456
Li 8.6524918467685 8.671846633920914 5.172799695666262 -0.18696855 -0.03433453 0.40018754
Li 8.77046777755269 8.76729351357412 11.97787758195876 -0.0351238 0.18194414 -0.10748025
Li 4.810940863286382 4.759468201614896 0.809555568023082 -0.0886359 -0.05545032 -0.47638879
Li 4.4636927246141305 4.243747063185323 7.1257550294144565 -0.306739 0.02191793 -0.29535611
Ge 4.388682315345178 4.373484604308484 3.8786247766292252 -1.57280866 0.43327102 0.43877017
Ge 4.624339500552093 4.111996091016342 10.076340435331213 0.78478196 1.66847226 1.7802995
P 8.792292669275549 8.666297174579446 2.152801674234059 0.42881688 2.15545373 0.08758415
P 8.59524125693033 0.0495256142457895 8.637298700673501 -0.58540893 0.79249246 0.02527971
P 0.117259005295271 4.434482699173779 6.355721710913429 0.69668387 1.26220594 0.91436155
P 4.428702217790935 0.114904939997134 12.66340391368995 -0.58030961 0.44080779 -1.00837199
S 8.360842719247616 1.9089802934033124 9.572854136431527 0.46617825 -1.24861527 -0.21720709
S 7.091895697144101 0.31155153551832804 3.266167538221892 -0.15654357 -1.09093838 0.15621025
S 8.641876718526632 7.258393916265726 9.945001164946493 -0.03647287 -0.14317132 0.18560179
S 1.603288917220361 8.758564859905636 3.484158829099462 -0.30732222 0.25864721 -0.43137112
S 8.785267803162215 1.7205359488122682 0.9965414869251071 0.59214783 -0.79620805 0.37866463
S 6.886427651753353 8.751088954951612 7.394439969463007 0.72012512 -0.83322128 -0.1480623
S 0.0173330801645645 6.974360856461775 1.071897625442475 -0.42987349 -0.02250412 0.12845227
S 1.6447513867956711 8.797183574931998 7.697530300298248 -0.0959606 -0.01802304 -0.28320733
S 0.12980727033687 2.6217262555132845 5.427714349942075 -0.2951659 -0.33472954 -0.6026559
S 6.103843920227676 0.214346194267408 11.370110278715813 -0.83004641 0.35361388 0.85357825
S 0.065285737172845 6.121267507502963 5.119192778985525 0.32740152 -0.92229647 0.01820572
S 2.4474750634634685 8.560027651840041 11.464230603688113 1.87223268 0.28530702 0.20594239
S 1.8740838153682995 4.380431553308017 7.667895250097078 -1.40428276 0.26993316 -0.70725133
S 4.212059977861544 1.935416557634231 0.8898730893903996 0.04547679 -0.77612823 0.02243308
S 7.2324461967404465 4.614050567684957 7.507867122215794 -0.22514775 -0.03318192 -0.15016942
S 4.5726834475268765 7.248130251434366 1.1376537631495134 -0.05556575 0.32705707 0.01120753
S 2.8176535484132734 4.6433813866621865 11.499027351666763 0.41367543 -0.11415563 -1.29510098
S 4.071391590112224 2.509205227030761 5.07494007403156 0.57964992 0.36677124 -0.10163512
S 6.542421921518521 4.417656212311836 11.532029140710144 -0.65500326 -0.53872374 -0.41675844
S 4.001420525204659 6.388614859501434 5.119022568457377 0.68625398 -0.90126812 -0.2829994
S 2.7392794969603385 4.433059237144447 2.22056032610248 -0.12513083 0.58374505 1.26980594
S 4.6664511913671545 2.3223817344906816 8.832531700732645 -0.62268183 -0.03598061 -0.15570591
S 6.228192502459609 4.646781830375626 2.7775147057819587 1.04633667 -0.58252259 0.07243855
S 4.80231812406751 6.1559957373973235 9.012486654594335 -0.35217694 -0.53028619 -0.088009
50
Lattice = "8.80419365 0.0 0.0 0.0 8.80419365 0.0 0.0 0.0 12.70227822" Properties=species:S:1:pos:R:3:forces:R:3 energy=-210.65752701 stress = "0 0 0 0 0 0 0 0 0"
Li 2.541246328981206 2.6273156858939233 3.6458722952549754 -0.56216639 -0.29540938 -0.03219913
Li 4.72266508740304 8.747831755468859 9.707423342122029 -0.2276386 0.27521288 0.01637561
Li 6.460454174301529 6.844699823781432 2.2103676369904055 0.16842384 -0.06300112 0.01462375
Li 1.969227302508326 6.277277642897089 0.4204880887368192 0.45005444 -0.27006677 -0.46917131
Li 7.004472783499632 2.891631049683208 4.080451783357934 -0.189748 -0.56140673 0.09880961
Li 2.4042980652167576 2.3594623568863864 9.910041065669933 -0.37500089 -0.35462396 0.41564917
Li 2.0938306781044904 6.368983972836157 5.955493628914728 0.04862083 0.29578175 0.18865091
Li 8.61599925646668 4.457997996077437 9.327630304255317 0.29206387 0.24824685 0.04263123
Li 1.978513437718727 2.9172641073274375 0.6216677873674369 0.27022995 -0.63361613 -0.11333128
Li 6.827384440046104 2.3858960679011463 8.778877785622493 -0.16568577 -0.42105277 -0.21831507
Li 5.728379221326538 6.344967101020258 11.504042465153583 0.43886798 0.83805062 -0.07840942
Li 2.135544155240762 6.751901949913638 9.088266033021993 0.07792038 -0.74010333 0.67318748
Li 6.296328333200833 2.0079406626164236 0.20698159123038481 0.53285656 0.48749954 0.08856322
Li 2.473034430006847 2.1627523711709125 6.759506303790948 -0.04345573 0.1445716 0.04712488
Li 2.3797885107242047 7.177489803683591 2.856302110714895 0.33442781 -0.86253343 -0.14210926
Li 6.368748812823765 6.48287167629897 7.495020165046869 0.087749 0.4355706 0.09665384
Li 8.684103392110762 0.013086641483296501 5.178901362032021 -0.37843521 -0.10875353 0.44029603
Li 0.070416469064319 0.1982094279360055 11.924054218457153 -0.03026881 -0.34825153 0.07165367
Li 4.418940039829878 4.280579759487843 0.4316673637982412 0.14497881 -0.15444949 0.42306334
Li 4.2590879304107645 4.59278861610408 6.615926482999525 -0.01975874 -0.31075983 0.26642232
Ge 4.451962985456172 4.647164812799401 3.789837757213158 0.19012769 -1.53662391 -0.83808419
Ge 4.421412609574545 4.300938488842166 10.231056470460892 -0.46305237 -1.25000874 -0.11694284
P 8.771146668925043 0.333106842831623 2.3205888617432473 -0.53112578 -1.71411355 0.15907081
P 8.788574922422963 8.594763453340942 8.665303286442354 0.51601061 -0.21437452 0.35363221
P 0.0485266904342605 4.486732066809068 6.213693473406579 1.47521272 -0.96213046 0.70945268
P 4.297822332541686 8.797285439452526 12.640039470154862 -0.9806026 0.16159519 -1.00093307
S 0.09054849043215502 1.5582088925162025 9.76630665815257 -0.24897487 0.08722148 0.16880022
S 6.9201526437812975 0.209846899144512 3.241690629160299 1.03635804 0.31547421 0.47362935
S 8.563094416614147 6.961290326652858 9.892517383705968 0.08585055 0.26500649 0.25540064
S 1.6442169722411162 0.328445198377821 3.5739801950309835 -0.50237558 0.64959442 -0.01236332
S 8.665352924810485 1.8452609983646757 1.0224644233392655 0.24759511 1.16465353 -0.4666977
S 7.2599935502099955 8.757964237814834 7.3933242013441625 -0.96217108 0.32439904 -0.61618382
S 0.1088458058852675 7.310662653127046 1.2666735975312617 -0.28533431 0.3610513 0.3205605
S 1.7894793882370057 8.406903795250194 7.697707370056635 0.2536927 0.75312084 -0.96858341
S 0.30684710268338705 2.6440337050900986 5.303991492600848 0.42614427 0.60206301 -0.16298236
S 6.120477595248685 0.080893811675565 11.6826385292913 -0.09606805 -0.42008933 -1.28272492
S 8.746811613550634 6.060048691502862 5.030944336165986 0.1776904 0.41834507 -0.61893456
S 2.503811425833025 0.261139603097793 11.467253999950037 1.7565672 -0.30108089 0.1094805
S 1.783365315956763 4.557212278235415 7.6516109294190375 -0.8740087 -0.03299515 -0.91738035
S 4.428617785573832 1.4198441220354054 1.2832193310950695 -0.94209513 1.02565138 1.17279896
S 7.181548184788496 4.346643875421284 7.332852719467772 -0.99044394 -0.31595223 0.78140286
S 4.309153769978918 6.898230641802479 0.684136448448357 -0.40978677 -0.19835355 0.76002816
S 2.4152366595333272 4.333034000709368 11.411341365726805 0.38650685 -0.0465195 -0.67633273
S 4.2966633484895995 2.646141076882163 5.082789573880392 0.44578332 1.16366175 -0.20059719
S 6.216488647630982 4.134696471755755 11.53543601875153 0.26923472 -0.39839254 -0.15721259
S 4.298205226923524 6.4940787104799265 4.922503970819588 -0.32632954 0.39556209 0.58807349
S 2.784989197594345 4.438025682782412 2.172441301703912 -0.34623959 0.71105069 0.82801758
S 4.4140461407475895 2.383476939611936 8.834660475539534 0.14064505 0.96464216 0.14837513
S 6.311438882720391 4.450424628699707 2.5592312625053286 -0.3693797 0.3035752 0.0880261
S 4.568379429419137 6.269440766003416 9.242069282438784 0.04473957 0.26810215 -0.5758592
50
Lattice = "8.80419365 0.0 0.0 0.0 8.80419365 0.0 0.0 0.0 12.70227822" Properties=species:S:1:pos:R:3:forces:R:3 energy=-210.84305671 stress = "0 0 0 0 0 0 0 0 0"
Li 1.823090542041055 2.482707509528166 2.623553313001329 0.36912171 -0.0414601 0.66007496
Li 4.549794833127226 0.0771045747705415 9.548987444815623 0.0937317 -0.04493455 -0.16467163
Li 6.842332904360566 6.023305445807826 3.181007527328764 0.52477378 1.02090284 0.24310322
Li 2.1488341735973737 6.139128575160718 0.42933979833720837 0.07468944 0.34011369 0.07075259
Li 6.516927970133962 2.334596408634882 4.303803943735472 -0.08442911 -0.16750166 0.34499195
Li 2.1790907535369 2.385715141721639 9.090599441531007 -0.9950285 -0.02240667 0.2112643
Li 1.9649198507650636 6.338553598113979 4.932240775166347 0.1850711 0.1611367 -0.26210116
Li 8.452040607003395 5.076967498195418 9.306797678815043 -0.07177727 -0.56547271 -0.04533285
Li 2.4234382061279844 2.464244939360243 12.361139103916223 -0.01976932 -0.7302428 0.19685009
Li 6.7283177161737004 2.3171641932498184 8.794975128765135 -0.05188651 -0.20185523 0.14137389
Li 6.487545470540008 6.807309381811184 11.728462379038294 0.3883986 -0.79353817 0.06645869
Li 2.0853758348585227 6.768948453574895 9.446959443560244 0.46826057 -0.12451262 -0.10862193
Li 6.334851874893836 2.5399236749691667 0.7064126878083354 0.17774273 0.04007644 0.00782413
Li 2.0017669859451708 2.544965572546712 6.242010662242425 -0.00382439 -0.33586324 -0.16258716
Li 4.526721242618988 8.439158927148272 2.8253871789602765 -0.13187161 0.15444226 0.22205195
Li 6.175772597593319 6.518586504133749 6.937791797226185 0.16071537 -0.04803021 0.0939219
Li 8.769425272982595 0.184083715518136 5.593867262335477 0.06735851 0.02461405 0.03630155
Li 0.4514479715684155 8.718598751083082 11.991200112424242 -0.05758066 -0.08453034 0.25696062
Li 4.455289473942951 4.695204191115134 0.264681181953606 -0.07350946 -0.23119964 0.30542959
Li 3.920438231382911 4.443383386786183 6.600633321090992 0.42791322 -0.02385952 0.42793771
Ge 4.303591280430848 4.404141510933276 3.7396297161385283 0.69256651 -0.85047733 0.47902778
Ge 4.412593889005023 4.4306030431999694 10.001080071991623 -0.27753264 -0.45129377 0.70677958
P 0.015463773768796499 0.0448306899399905 2.373842401043904 0.07912592 -2.8289109 1.02127176
P 8.728475295519651 0.096498364500825 8.842389811836405 0.24995152 -0.34298261 -0.68102462
P 8.610712338179855 4.508739205340482 6.300920780080013 -0.32137819 0.43496704 -0.36152395
P 4.7774492704321005 8.719118022424558 12.502454489569367 -3.42455165 -0.39041931 2.78810927
S 0.0437775322955775 1.6715826071537285 10.131971714091872 -0.15814989 0.31174584 -0.09325938
S 7.1600545068307495 0.078594860629677 3.640729396849262 -0.11749245 0.07255102 -0.43408848
S 8.665353188936294 7.191614195472413 10.13542152583364 0.26664106 0.66102811 -0.55933646
S 1.646420485827838 8.49822150808155 3.5733787421572667 0.41122083 1.08043383 0.27879694
S 0.2077772973432065 1.6204339398085617 1.1878076925189258 -0.17675938 1.29933506 -1.06302527
S 7.041369838457735 0.15005004846082298 7.604627488693338 0.58690505 0.18522445 0.55522804
S 8.731698246689106 7.031618225529058 1.344471367968078 -0.47599027 0.45458428 -0.68455193
S 1.708732342469586 0.21504595157871 7.680841793127249 -0.89968782 -0.3912404 0.43747586
S 0.016304310136562 2.9742310260462066 4.915015977808898 0.21863612 0.13656328 0.71387953
S 6.4013744251906335 0.271931431506217 11.572080948211191 1.60840585 1.23924305 -1.49687723
S 8.40937918233683 6.364760777226125 5.355180403599626 -0.20801719 -1.06924034 0.14331815
S 3.071056818508875 8.362818204218804 11.420678683423546 -0.52596214 0.29880673 -0.45728728
S 1.5122937900443414 4.62671971430537 7.493873403369167 0.05976412 -0.19509591 -0.03185008
S 4.15568153144634 1.5739194478330085 1.0610992917048707 0.7049024 -0.76206127 -0.30329398
S 6.967930801671434 4.284511976497742 7.573683595744378 0.52823186 0.1753422 -0.67773594
S 4.945120560315653 6.948129465817091 0.9589156875412986 -0.07825204 0.79229761 0.01334433
S 2.3614728825483007 4.3377828066803055 11.165090173288162 0.56547733 0.82189577 -0.16678016
S 4.080392205322555 2.493808453175641 5.043100543445308 -0.20114444 0.72257808 -0.38173811
S 6.210305902640269 4.328081377655434 11.359491174123894 0.03365056 -0.04315743 0.03534922
S 4.638386679562605 6.217928309376631 5.066869300496137 -0.72631731 0.18709499 -0.50048845
S 2.615776645570424 4.739340846469695 2.395434241653389 -0.53557093 -0.1658862 -0.2872055
S 4.30509574104176 2.5487484704323076 8.787293680057154 0.82461566 0.05506193 -0.20063842
S 6.266281733279858 3.9689704684591707 2.7560091136415874 -0.15682556 -0.17312864 -0.91858102
S 4.396195285954469 6.283030831279619 8.838337658061443 0.02824741 0.33951085 -0.46850861
50
Lattice = "8.80419365 0.0 0.0 0.0 8.80419365 0.0 0.0 0.0 12.70227822" Properties=species:S:1:pos:R:3:forces:R:3 energy=-210.14033111 stress = "0 0 0 0 0 0 0 0 0"
Li 2.1711117769577144 2.3555527666541676 3.5984727278947877 -0.44815271 0.09330765 0.04031024
Li 4.796560973797838 0.3785017055007055 9.421809313752991 -0.26237526 -0.62263017 -0.12203643
Li 6.980777881045514 6.513922130379916 2.8143285755419445 -0.15649215 -0.73722929 0.05049438
Li 2.1094013347841982 6.7913680685788105 0.59631480217701 0.34987609 -0.26273224 -0.15845969
Li 6.932848731234279 3.0515789487292344 4.493879056700601 0.04735292 -0.35999198 0.17770272
Li 2.2271534629658056 2.306154373006621 10.193661852540687 0.55693018 0.29110421 0.01365577
Li 2.0096845972946156 6.428521980226535 4.376627374998554 0.61705279 -0.00990232 -0.05198036
Li 8.361515623768286 4.725938398560173 9.490647659270113 0.1312964 0.09439228 0.02897191
Li 2.1333590424187685 3.4218322693250642 0.48369322790893504 0.0769487 -0.30085984 0.41130299
Li 6.726168348377926 2.2389169221854437 9.767374284636963 -0.50134999 0.37339273 0.05137076
Li 6.922081290442265 7.058152656519174 11.589708534810995 -0.37412492 -0.50083117 0.05388394
Li 2.1808749233800726 6.507557226622586 9.234698023364935 0.08990094 0.04947946 0.00868804
Li 6.31547727830571 2.129592520333362 1.3594855878469003 0.7930376 0.14727834 -0.05118938
Li 2.4978383967350553 2.2042437185013943 7.03569320935623 -0.09399028 -0.01537369 -0.13937696
Li 4.168001063536912 0.0507294996854905 3.5538394626853522 -0.01967429 -0.0550484 -0.32475585
Li 6.246635351233757 6.380838115250389 6.814893952855348 0.27914736 -0.0067349 0.09064042
Li 8.769112019772527 8.640506874036628 5.388254849674427 -0.54699767 -0.13213831 0.70479145
Li 0.0378595294079205 0.361516919236935 11.829150035895898 0.12975621 -0.12491701 0.12120936
Li 4.607345734010799 4.963146354436599 0.3849923343877224 0.1240624 -0.2285147 0.02893659
Li 4.59201182209834 4.4674584543221085 7.033679517190014 -0.29782042 -0.18195825 -0.11000523
Ge 4.334827150830065 4.2288027368418755 3.7258129400275055 -0.21871457 1.40181509 0.0193693
Ge 4.772237628000983 4.637634097089403 10.07093942663207 -1.64181992 -0.18240239 -0.11008923
P 8.606190504321214 8.776403388827648 2.1005577120063275 1.35965626 1.63314643 0.94096806
P 8.58223517381893 8.667940565366155 8.57621623921473 -1.29446481 0.86937382 1.7007711
P 0.0816853967266365 4.150507659005981 6.33412847305334 -0.95168245 -0.56100585 0.53050658
P 4.255660369780883 0.220889294904215 12.650813034449937 0.56943617 -1.41336492 -1.03728438
S 0.042226321416384 1.595979147400512 9.861283370722463 -0.3481997 -0.08556618 -0.76592764
S 6.8955369987552615 8.706709215810374 3.188774843437512 0.03210747 1.07011676 0.414408
S 8.64150016316422 7.214341869212142 10.048462491276215 0.20314141 -0.66821965 -0.24519183
S 1.38832273163612 8.798903298077652 3.627131226946405 0.10219309 -0.67894015 -1.23621025
S 0.1335192064216465 1.8994845303421048 1.2040122428897442 -0.7452785 -1.55757644 0.14335507
S 6.845708608289849 8.694906754012868 7.484480830762171 0.54900555 0.42599568 0.02035655
S 8.593177465896831 7.081198601859351 0.9590199732454848 0.1165031 0.13388486 -0.24944577
S 1.4451862010795022 8.57915669946727 7.594755659129101 1.9088649 -0.62491101 -1.51813256
S 0.34232738679933156 2.3140619475753046 5.433143938767214 -0.15700168 0.52949829 -0.58062088
S 5.977534732111824 0.35391925228473103 11.412507053799056 0.24348772 0.24325273 1.25898087
S 0.009069287920801502 5.671140429107857 5.038470436011336 -1.38405581 0.72822535 -0.42669226
S 2.786157866259446 0.084213520933234 11.205957085982584 -0.2209443 -0.21810328 0.82967404
S 1.6542299816792612 4.394312861310162 7.502940416585385 1.33707688 0.40440896 1.49125089
S 4.107761802122311 1.8630539215635795 1.105728873253623 -0.7515673 0.21417284 0.46676444
S 7.149084921752533 4.029983090243989 7.5667687295269745 0.211295 0.34783553 -1.10872036
S 4.400629958295974 7.230705959823587 1.2155468006729797 -0.31707036 1.4867675 -0.75674075
S 2.5337297486525188 4.676870954551929 11.260848457036928 1.04372305 0.11920465 -0.29998303
S 4.3295355663206045 2.33875128370219 4.929305278669705 -0.06421542 -0.14434948 0.0198066
S 6.515991644139285 4.360901650743904 11.373945731624342 0.04661369 0.10588237 0.22454939
S 4.396983525411953 6.1008780515128 5.08830630033412 0.19895035 -0.29716335 -0.05940668
S 2.3017297374458763 4.674205749050201 2.717825811266703 0.89654304 -0.58873742 -0.46807836
S 4.500920377043791 2.6142907618081135 8.82501525461874 -0.35437149 1.09751675 0.20615086
S 6.282228505112294 4.277199829545609 2.5550414160344617 -0.57386866 -0.3000668 -0.19131505
S 4.755579301237755 6.566506761709397 8.932428259702705 -0.16864087 -1.02519268 -0.01564451
50
Lattice = "8.80419365 0.0 0.0 0.0 8.80419365 0.0 0.0 0.0 12.70227822" Properties=species:S:1:pos:R:3:forces:R:3 energy=-210.78908592 stress = "0 0 0 0 0 0 0 0 0"
Li 2.132610774000455 2.789920602541583 4.101324166929038 0.50378819 -0.32576507 -0.32500667
Li 4.357963867406772 8.727294741193123 9.199398138145991 0.04301448 -0.04091684 0.32561055
Li 6.7791583247830545 6.292037345299695 3.272299054941469 0.29159441 0.52818096 -0.01054964
Li 2.5230961316039853 6.253826792690949 0.4245411316712568 -0.34507139 0.02303673 0.01587808
Li 6.701514581193387 2.1006185353247675 5.720195738007972 -0.05694842 0.26049787 0.06899127
Li 2.0942871755452432 1.90752716124138 10.821339722847918 0.56432142 0.11568893 0.24929151
Li 1.9321506419997634 6.199846872751816 4.501316875712323 0.55739803 0.16234091 -0.28923866
Li 8.666044406179756 4.831757498752443 9.244556642559823 0.11295667 -0.31350761 -0.09626296
Li 2.3023904921793092 2.8504352591335564 1.0048287072813995 -0.12284679 -0.13577045 -0.0916041
Li 6.279650020918019 2.134559670306819 10.124041935844689 0.19588683 0.16794618 -0.1367458
Li 6.104067282620577 6.413683040081079 10.537156733143146 0.15343025 0.20127225 0.32910877
Li 1.808163559959099 6.77925904475841 8.801774658296301 0.4573657 0.14879812 0.44382123
Li 6.6612316094413675 1.6253549558072926 1.8239037436708962 0.11683178 0.51892153 -0.14028615
Li 2.0503675435641546 2.3306564439345707 7.962776352564298 -0.16799414 0.26706216 -0.28390521
Li 4.31646398000845 8.244609842722253 3.132048374248725 0.00919758 -0.34752008 -0.32795404
Li 6.713673436749847 6.929484912966424 6.307337716991192 -0.64869547 -0.40187303 0.28289124
Li 0.2507181671162245 8.79932669175028 5.295585887011546 0.29412211 0.118247 0.37459381
Li 8.624840603813883 8.240444930874185 11.976530378330745 -0.0151274 0.36456737 0.43407182
Li 5.353478959280302 4.441851545133019 0.9622580380093273 -0.73255204 0.23652015 -0.7732265
Li 4.3041090550594046 4.533220146203672 7.0660230741760355 -0.03909113 0.08278301 -0.08302371
Ge 4.555611939955654 4.248255954879297 3.828584151581535 0.30507431 0.9479038 -0.05666818
Ge 4.061343980193034 4.331636246925495 10.346825415226318 0.04730536 0.04959557 -0.20236391
P 0.3012498365703995 8.798808917121724 2.375842882840772 0.56214983 -0.78442418 -1.27198497
P 8.683034915169399 0.136553571763119 8.566462667860721 1.17555136 -0.73090614 0.69079892
P 8.769165813395729 4.522760764147472 6.213099387854229 1.16132059 0.36456781 -1.09141081
P 4.357123419080943 0.0356854218279895 12.3956659284827 2.04713404 0.4837227 0.31026163
S 0.1832056732854215 1.8331281151794836 9.66645963806757 -0.81526565 0.29043659 -0.11053414
S 7.407378481211027 0.1124541166107835 3.5494594631095313 -0.54858232 0.01953982 0.36753516
S 8.417941700871136 7.22420538344211 9.832605691230734 0.81708762 0.3689576 -0.48990452
S 2.056857378829379 0.1987265862710065 3.472561776107384 -0.84817225 -0.14874409 0.3583202
S 0.222332478327323 1.5536569483152796 1.041019022203566 -0.29872115 -0.08014321 -0.24953187
S 7.004392929463227 0.1820938797112995 7.531964995295303 -1.28880738 0.54898443 -1.1983021
S 0.0815432970411255 6.96243936196612 1.3827667044368628 0.2665461 0.65533023 0.3480437
S 1.622101013876189 8.767090312784678 7.427805297709045 -0.41958121 -0.18479063 0.14560241
S 0.0922206709320995 2.8779116508022864 4.925513267552689 -0.08388225 0.57205841 1.12502218
S 6.112009809838051 0.070436366541968 11.158731666856793 -1.11455105 -0.22426601 0.26973329
S 8.486254319820851 6.283835094369547 5.080031909278829 0.44458144 -0.30433695 -0.24721334
S 2.64593488266688 8.395088215204149 11.494837886264243 -1.00039218 0.52999637 -1.15005008
S 1.6988639859331105 4.991375944872086 7.406887185936349 -0.96030668 -1.33579415 -0.88250543
S 4.452311367398902 1.8198885448524864 0.8087544353357466 -0.4954141 -1.04399786 0.01157862
S 7.078579090122666 4.30379448122029 7.1986846517234575 -0.88157348 -0.09739126 1.41991367
S 4.714846083022474 7.134335784382307 0.7337091215664222 0.33995107 -0.2133614 1.3505328
S 1.9056554777133268 4.624546223018995 11.163546338393303 1.05195885 -0.71164531 0.27034266
S 4.225797865549131 2.7130500432382587 5.414663140139371 -0.01869581 -0.23326482 -0.39354709
S 6.061915356640536 4.039888248309921 11.514169737532825 -0.6495432 0.79829752 -0.87241361
S 4.424641987805365 6.312202734561465 4.873016402965597 0.55515737 0.1168739 -0.0208929
S 2.7866299471229588 4.593263250183751 2.4217029340806957 0.04092953 -0.29653749 0.48368315
S 4.182063121634692 2.4817437144493004 8.942782394770957 -0.36943213 0.28626589 0.49401617
S 6.503680564074617 4.145291262310293 2.7328258045939187 0.07230522 -0.97124314 0.74451574
S 4.387838609467698 6.160800009788256 8.990593897013818 -0.26130859 -0.22199832 -0.21962753
50
Lattice = "8.80419365 0.0 0.0 0.0 8.80419365 0.0 0.0 0.0 12.70227822" Properties=species:S:1:pos:R:3:forces:R:3 energy=-210.45718196 stress = "0 0 0 0 0 0 0 0 0"
Li 2.291211455334158 2.8564958019164073 4.297172465345157 0.0163479 -0.21584417 -0.14668281
Li 4.169063377542721 0.0961202243835575 9.901986551050632 -0.14525777 -0.2389614 -0.63239369
Li 7.257234668087831 6.080095752401975 3.245803880893499 -0.09267221 0.41334923 -0.37154478
Li 2.2876428515220035 6.040296395007151 1.0742245557895969 0.50673298 0.10090562 -0.90226213
Li 6.790761899846008 2.396440938677688 6.283021745794646 -0.21567019 0.29268645 -0.06900307
Li 2.2624388222343392 1.793267392554918 10.944507744676494 0.37457411 0.19606226 0.12259142
Li 2.487579838336012 6.818354682954791 3.7650614554539192 -0.33908118 -0.40969965 0.31780272
Li 8.33677627982147 4.451516436754244 9.512183355809867 0.14288754 -0.0147186 -0.08568354
Li 2.235359763825034 2.399483756045065 1.0300528913706755 0.20444142 0.66535919 0.37304017
Li 6.025981568509679 2.1116884001686587 9.726113601317719 0.13090723 -0.33048185 -0.19917587
Li 6.158229889577948 6.8597008491319835 10.624635671948118 0.07309886 -0.5453725 -0.08057678
Li 1.950135056410555 6.920529903479199 8.457071536989556 0.24745275 0.16597292 -0.02204693
Li 6.583015681306386 1.8464310757007605 1.4320798700108934 0.29318052 -0.06139377 0.32672167
Li 1.9388407726705257 2.60056537607551 7.492047831943388 -0.12880038 -0.30187763 -0.05625239
Li 5.009342926979451 7.989439570961097 2.919812358609855 0.10838617 0.45608597 -0.37137018
Li 6.51248669464722 7.071077741048993 6.598058315250234 -0.01328297 -0.88855237 -0.42940996
Li 8.6751946046402 0.2320807456624125 5.352267898226563 0.31821156 -0.20237347 -0.08750406
Li 8.502214562069572 8.721808231836253 11.607782479467451 0.07609437 0.03886426 0.41736927
Li 5.156946290024939 4.049384539622747 0.2242521167894256 -0.40398384 0.11009577 -0.20895658
Li 4.1156829351492155 4.945872702579172 6.7715283750122675 0.07261328 -0.13658287 -0.09235389
Ge 4.737861918020367 4.3859323254586 3.672511640160742 0.48807451 -0.26172966 -0.27124345
Ge 3.944854373380837 4.302833679567265 10.125426103102322 0.35265563 -0.87299711 0.64338424
P 0.2546050425288265 8.75039676924685 2.0891185483325243 -0.95028149 0.22599629 1.58304202
P 8.5764050367839 0.1542227960412405 8.715232131441708 0.66359934 -0.15094074 0.05342887
P 8.739363882016288 4.785443302182428 6.306646331987677 -0.23088037 -0.27289728 -0.63796943
P 4.240690511275852 8.555025197050048 12.604502814469898 0.91927263 0.93212435 1.52066294
S 0.2211739344849195 1.730637880606278 9.982933343280967 -1.82791812 0.21123217 -0.43472897
S 7.2977270916067845 0.050304169090259 3.3491421221472693 0.35690175 0.46859265 -0.6054849
S 0.0432746367542895 7.1846837103150065 9.794091875576564 -1.09529688 0.51933786 0.27336736
S 1.827517818859894 0.288251413107476 3.3378086414282566 0.30093961 0.01344307 0.48160771
S 0.22060844112678002 1.4486364765290005 0.716047746906552 -0.85119007 0.02290252 -0.19881029
S 6.756298940306321 0.255781723010149 7.660211006887889 0.26742598 0.72140277 0.7457653
S 0.1503757155839365 6.886543338857914 1.396929744652163 -0.16543119 -0.48208535 -0.75148517
S 1.3177475229602915 0.24064590545481498 7.421047050582094 0.48436524 -0.84503231 -0.90465497
S 0.3036801461855455 2.8338272043160693 5.584265483206198 -0.63731277 0.39634931 -0.35585666
S 5.864158904467821 0.35385418929365753 11.467608901603505 0.70253371 -0.2231482 -0.69725237
S 8.775739024374818 6.336978439828057 4.8929004222684025 0.19833498 -0.68465213 1.4161709
S 2.5956860919546796 8.228093439560663 11.525765647319863 -0.514053 0.19723391 -0.31568368
S 1.4595473376355725 4.845402414155086 7.627985581089314 1.03192964 0.59207588 0.36499213
S 4.240574912213227 1.4316980883657657 1.2831868132628261 0.28847477 -1.23705089 -0.62008131
S 7.068987097224864 4.760623047695966 7.524987506846275 -0.23212149 0.07252147 -0.95158416
S 4.8318279323016435 6.821500861555618 0.7859205659619103 -0.19874215 0.08584454 0.25776323
S 2.5377465739633944 4.125781609391575 11.914019672708916 0.31016482 0.20579539 -0.75890451
S 4.537396063293803 2.853436872874651 5.337145073868959 -0.11549992 0.32684672 -0.23248413
S 6.166688694711059 4.148739688879124 10.619852502061594 -0.01849798 0.47671556 1.36734411
S 4.74146151259417 6.4370499863217345 4.655502463703535 0.28506185 0.19465034 0.57402981
S 2.7695220782319616 4.511976419303651 2.646751483714515 -0.52706508 -0.58230495 0.48001765
S 3.715462516501071 2.30659484681493 9.009026681029988 0.05380623 0.37471147 0.07562471
S 6.457589817939438 4.226002298925684 2.1659546292853045 -0.39383272 -0.43934724 0.61655759
S 4.193480223876139 6.154688930933855 8.984814106378154 -0.23464263 1.02573343 -0.49998226
50
Lattice = "8.80419365 0.0 0.0 0.0 8.80419365 0.0 0.0 0.0 12.70227822" Properties=species:S:1:pos:R:3:forces:R:3 energy=-210.44175291 stress = "0 0 0 0 0 0 0 0 0"
Li 1.779546585003012 2.5027734994436264 3.3286941216914956 -0.01106404 0.22591941 0.18110813
Li 4.603679755816876 8.759715479973755 9.08892629744387 -0.09167734 0.05676744 0.34507076
Li 6.44301755681964 6.710998018383484 3.414023707998861 0.03505462 -0.17317544 -0.13068543
Li 2.1144503637586 6.528400979005087 1.094963692462173 0.13882928 0.18294969 -0.31397373
Li 6.614804631150695 2.1410220364878554 5.454643433814039 -0.09044288 0.05240456 0.11551433
Li 2.2550182076164367 2.1962959968096665 10.093955319652798 0.46439628 0.07973898 -0.19619914
Li 1.696415275553236 5.89546239107427 4.131979210071275 0.07887402 0.30189195 0.17496506
Li 0.155527137330488 4.599817708230367 9.619483310617671 -0.17590163 0.05352835 -0.36389077
Li 2.500904105005922 2.7743025793000387 0.146105414769906 -0.14635818 -0.20897524 0.52920536
Li 6.6125802516250225 1.85629908006949 9.388734486609845 -0.15078342 0.39209292 -0.04258424
Li 6.273851490938192 6.549956198276446 11.201914331893507 -0.06638762 1.01668237 -0.29123726
Li 2.2147333869837507 7.059750529624712 9.444573701664964 0.89639007 -0.44859859 0.08232847
Li 6.678142264394605 2.4794318212387467 1.9765438454710813 0.39091515 -0.47400284 0.01286782
Li 2.29459297003125 2.049598145081081 6.7470668357073205 -0.16201989 0.16369272 0.01585426
Li 4.2149803288952485 0.0997391001414535 2.8426686284785867 0.02067463 0.0142546 0.0174302